 Entering Gaussian System, Link 0=g09
 Input=H2O.r1.80theta130.0.inp
 Output=H2O.r1.80theta130.0.out
 Initial command:
 /usr/local/shared/gaussian/em64t_sse4/09-D01/g09/l1.exe "/scratch/mdd31/Gau-6660.inp" -scrdir="/scratch/mdd31/"
 Entering Link 1 = /usr/local/shared/gaussian/em64t_sse4/09-D01/g09/l1.exe PID=      6662.
  
 Copyright (c) 1988,1990,1992,1993,1995,1998,2003,2009,2013,
            Gaussian, Inc.  All Rights Reserved.
  
 This is part of the Gaussian(R) 09 program.  It is based on
 the Gaussian(R) 03 system (copyright 2003, Gaussian, Inc.),
 the Gaussian(R) 98 system (copyright 1998, Gaussian, Inc.),
 the Gaussian(R) 94 system (copyright 1995, Gaussian, Inc.),
 the Gaussian 92(TM) system (copyright 1992, Gaussian, Inc.),
 the Gaussian 90(TM) system (copyright 1990, Gaussian, Inc.),
 the Gaussian 88(TM) system (copyright 1988, Gaussian, Inc.),
 the Gaussian 86(TM) system (copyright 1986, Carnegie Mellon
 University), and the Gaussian 82(TM) system (copyright 1983,
 Carnegie Mellon University). Gaussian is a federally registered
 trademark of Gaussian, Inc.
  
 This software contains proprietary and confidential information,
 including trade secrets, belonging to Gaussian, Inc.
  
 This software is provided under written license and may be
 used, copied, transmitted, or stored only in accord with that
 written license.
  
 The following legend is applicable only to US Government
 contracts under FAR:
  
                    RESTRICTED RIGHTS LEGEND
  
 Use, reproduction and disclosure by the US Government is
 subject to restrictions as set forth in subparagraphs (a)
 and (c) of the Commercial Computer Software - Restricted
 Rights clause in FAR 52.227-19.
  
 Gaussian, Inc.
 340 Quinnipiac St., Bldg. 40, Wallingford CT 06492
  
  
 ---------------------------------------------------------------
 Warning -- This program may not be used in any manner that
 competes with the business of Gaussian, Inc. or will provide
 assistance to any competitor of Gaussian, Inc.  The licensee
 of this program is prohibited from giving any competitor of
 Gaussian, Inc. access to this program.  By using this program,
 the user acknowledges that Gaussian, Inc. is engaged in the
 business of creating and licensing software in the field of
 computational chemistry and represents and warrants to the
 licensee that it is not a competitor of Gaussian, Inc. and that
 it will not use this program in any manner prohibited above.
 ---------------------------------------------------------------
  

 Cite this work as:
 Gaussian 09, Revision D.01,
 M. J. Frisch, G. W. Trucks, H. B. Schlegel, G. E. Scuseria, 
 M. A. Robb, J. R. Cheeseman, G. Scalmani, V. Barone, B. Mennucci, 
 G. A. Petersson, H. Nakatsuji, M. Caricato, X. Li, H. P. Hratchian, 
 A. F. Izmaylov, J. Bloino, G. Zheng, J. L. Sonnenberg, M. Hada, 
 M. Ehara, K. Toyota, R. Fukuda, J. Hasegawa, M. Ishida, T. Nakajima, 
 Y. Honda, O. Kitao, H. Nakai, T. Vreven, J. A. Montgomery, Jr., 
 J. E. Peralta, F. Ogliaro, M. Bearpark, J. J. Heyd, E. Brothers, 
 K. N. Kudin, V. N. Staroverov, T. Keith, R. Kobayashi, J. Normand, 
 K. Raghavachari, A. Rendell, J. C. Burant, S. S. Iyengar, J. Tomasi, 
 M. Cossi, N. Rega, J. M. Millam, M. Klene, J. E. Knox, J. B. Cross, 
 V. Bakken, C. Adamo, J. Jaramillo, R. Gomperts, R. E. Stratmann, 
 O. Yazyev, A. J. Austin, R. Cammi, C. Pomelli, J. W. Ochterski, 
 R. L. Martin, K. Morokuma, V. G. Zakrzewski, G. A. Voth, 
 P. Salvador, J. J. Dannenberg, S. Dapprich, A. D. Daniels, 
 O. Farkas, J. B. Foresman, J. V. Ortiz, J. Cioslowski, 
 and D. J. Fox, Gaussian, Inc., Wallingford CT, 2013.
 
 ******************************************
 Gaussian 09:  ES64L-G09RevD.01 24-Apr-2013
                29-Sep-2014 
 ******************************************
 -----------------
 #RHF 6-31G(d',p')
 -----------------
 1/38=1/1;
 2/12=2,17=6,18=5,40=1/2;
 3/5=11,6=6,7=101,11=1,16=1,25=1,30=1,116=1/1,2,3;
 4//1;
 5/5=2,38=5/2;
 6/7=2,8=2,9=2,10=2,28=1/1;
 99/5=1,9=1/99;
 -------------------
 H2O.r1.80theta130.0
 -------------------
 Symbolic Z-matrix:
 Charge =  0 Multiplicity = 1
 O
 H                    1     1.8 
 H                    1     1.8      2     130. 
 
                          Input orientation:                          
 ---------------------------------------------------------------------
 Center     Atomic      Atomic             Coordinates (Angstroms)
 Number     Number       Type             X           Y           Z
 ---------------------------------------------------------------------
      1          8           0        0.000000    0.000000    0.000000
      2          1           0        0.000000    0.000000    1.800000
      3          1           0        1.378880    0.000000   -1.157018
 ---------------------------------------------------------------------
                    Distance matrix (angstroms):
                    1          2          3
     1  O    0.000000
     2  H    1.800000   0.000000
     3  H    1.800000   3.262708   0.000000
 Stoichiometry    H2O
 Framework group  C2V[C2(O),SGV(H2)]
 Deg. of freedom     2
 Full point group                 C2V     NOp   4
 Largest Abelian subgroup         C2V     NOp   4
 Largest concise Abelian subgroup C2      NOp   2
                         Standard orientation:                         
 ---------------------------------------------------------------------
 Center     Atomic      Atomic             Coordinates (Angstroms)
 Number     Number       Type             X           Y           Z
 ---------------------------------------------------------------------
      1          8           0        0.000000    0.000000    0.152143
      2          1           0        0.000000    1.631354   -0.608570
      3          1           0        0.000000   -1.631354   -0.608570
 ---------------------------------------------------------------------
 Rotational constants (GHZ):    487.8720425     94.2118700     78.9634217
 Standard basis: 6-31(d',p') (6D, 7F)
 There are    12 symmetry adapted cartesian basis functions of A1  symmetry.
 There are     2 symmetry adapted cartesian basis functions of A2  symmetry.
 There are     4 symmetry adapted cartesian basis functions of B1  symmetry.
 There are     7 symmetry adapted cartesian basis functions of B2  symmetry.
 There are    12 symmetry adapted basis functions of A1  symmetry.
 There are     2 symmetry adapted basis functions of A2  symmetry.
 There are     4 symmetry adapted basis functions of B1  symmetry.
 There are     7 symmetry adapted basis functions of B2  symmetry.
    25 basis functions,    42 primitive gaussians,    25 cartesian basis functions
     5 alpha electrons        5 beta electrons
       nuclear repulsion energy         4.8659869783 Hartrees.
 NAtoms=    3 NActive=    3 NUniq=    2 SFac= 2.25D+00 NAtFMM=   60 NAOKFM=F Big=F
 Integral buffers will be    131072 words long.
 Raffenetti 1 integral format.
 Two-electron integral symmetry is turned on.
 One-electron integrals computed using PRISM.
 NBasis=    25 RedAO= T EigKep=  1.43D-01  NBF=    12     2     4     7
 NBsUse=    25 1.00D-06 EigRej= -1.00D+00 NBFU=    12     2     4     7
 ExpMin= 1.61D-01 ExpMax= 5.48D+03 ExpMxC= 8.25D+02 IAcc=1 IRadAn=         1 AccDes= 0.00D+00
 Harris functional with IExCor=  205 and IRadAn=       1 diagonalized for initial guess.
 HarFok:  IExCor=  205 AccDes= 0.00D+00 IRadAn=         1 IDoV= 1 UseB2=F ITyADJ=14
 ICtDFT=  3500011 ScaDFX=  1.000000  1.000000  1.000000  1.000000
 FoFCou: FMM=F IPFlag=           0 FMFlag=      100000 FMFlg1=           0
         NFxFlg=           0 DoJE=T BraDBF=F KetDBF=T FulRan=T
         wScrn=  0.000000 ICntrl=     500 IOpCl=  0 I1Cent=   200000004 NGrid=           0
         NMat0=    1 NMatS0=      1 NMatT0=    0 NMatD0=    1 NMtDS0=    0 NMtDT0=    0
 Petite list used in FoFCou.
 Initial guess orbital symmetries:
       Occupied  (A1) (A1) (B2) (A1) (B1)
       Virtual   (A1) (B2) (A1) (B2) (B1) (A1) (A1) (B2) (B2) (A2)
                 (A1) (B1) (A1) (B2) (B1) (A1) (A2) (B2) (A1) (A1)
 The electronic state of the initial guess is 1-A1.
 Keep R1 ints in memory in symmetry-blocked form, NReq=903518.
 Requested convergence on RMS density matrix=1.00D-08 within 128 cycles.
 Requested convergence on MAX density matrix=1.00D-06.
 Requested convergence on             energy=1.00D-06.
 No special actions if energy rises.
 SCF Done:  E(RHF) =  -75.6232271796     A.U. after   13 cycles
            NFock= 13  Conv=0.28D-08     -V/T= 2.0110

 **********************************************************************

            Population analysis using the SCF density.

 **********************************************************************

 Orbital symmetries:
       Occupied  (A1) (A1) (B1) (B2) (A1)
       Virtual   (A1) (B2) (A1) (B2) (B1) (A1) (A1) (B2) (B2) (A2)
                 (A1) (B1) (A1) (B2) (A2) (A1) (B1) (B2) (A1) (A1)
 The electronic state is 1-A1.
 Alpha  occ. eigenvalues --  -20.64217  -1.18437  -0.49057  -0.44191  -0.42616
 Alpha virt. eigenvalues --   -0.03390   0.06848   0.95722   0.96518   1.13608
 Alpha virt. eigenvalues --    1.17905   1.17971   1.25079   1.49658   1.49698
 Alpha virt. eigenvalues --    1.54462   1.56981   1.89120   1.93820   3.20984
 Alpha virt. eigenvalues --    3.21273   3.21594   3.27867   3.28327   6.13996
          Condensed to atoms (all electrons):
               1          2          3
     1  O    8.105250   0.162332   0.162332
     2  H    0.162332   0.626118  -0.003408
     3  H    0.162332  -0.003408   0.626118
 Mulliken charges:
               1
     1  O   -0.429915
     2  H    0.214957
     3  H    0.214957
 Sum of Mulliken charges =   0.00000
 Mulliken charges with hydrogens summed into heavy atoms:
               1
     1  O    0.000000
 Electronic spatial extent (au):  <R**2>=             33.7695
 Charge=              0.0000 electrons
 Dipole moment (field-independent basis, Debye):
    X=              0.0000    Y=              0.0000    Z=             -1.6483  Tot=              1.6483
 Quadrupole moment (field-independent basis, Debye-Ang):
   XX=             -8.4212   YY=              0.0242   ZZ=             -7.0111
   XY=              0.0000   XZ=              0.0000   YZ=              0.0000
 Traceless Quadrupole moment (field-independent basis, Debye-Ang):
   XX=             -3.2852   YY=              5.1602   ZZ=             -1.8750
   XY=              0.0000   XZ=              0.0000   YZ=              0.0000
 Octapole moment (field-independent basis, Debye-Ang**2):
  XXX=              0.0000  YYY=              0.0000  ZZZ=              0.5710  XYY=              0.0000
  XXY=              0.0000  XXZ=              0.3594  XZZ=              0.0000  YZZ=              0.0000
  YYZ=             -4.6076  XYZ=              0.0000
 Hexadecapole moment (field-independent basis, Debye-Ang**3):
 XXXX=             -6.8360 YYYY=            -11.3133 ZZZZ=            -10.9686 XXXY=              0.0000
 XXXZ=              0.0000 YYYX=              0.0000 YYYZ=              0.0000 ZZZX=              0.0000
 ZZZY=              0.0000 XXYY=             -7.1825 XXZZ=             -3.0623 YYZZ=             -4.4653
 XXYZ=              0.0000 YYXZ=              0.0000 ZZXY=              0.0000
 N-N= 4.865986978349D+00 E-N=-1.894097967644D+02  KE= 7.480174904153D+01
 Symmetry A1   KE= 6.769204856428D+01
 Symmetry A2   KE= 1.338203491108D-35
 Symmetry B1   KE= 4.842703397918D+00
 Symmetry B2   KE= 2.266997079332D+00
 1\1\GINC-CARPATHIA\SP\RHF\6-31(d',p')\H2O1\MDD31\29-Sep-2014\0\\#RHF 6
 -31G(d',p')\\H2O.r1.80theta130.0\\0,1\O\H,1,1.8\H,1,1.8,2,130.\\Versio
 n=ES64L-G09RevD.01\State=1-A1\HF=-75.6232272\RMSD=2.784e-09\Dipole=0.5
 877256,0.,0.274061\Quadrupole=-0.4598407,-2.4424365,2.9022772,0.,-2.00
 34081,0.\PG=C02V [C2(O1),SGV(H2)]\\@


 WE STILL HAVE JUDGEMENT HERE,
 THAT WE TEACH BUT BLOODY INSTRUCTIONS,
 WHICH, BEING TAUGHT,
 RETURN TO PLAGUE THE INVENTOR.
           MACBETH ACT I, SCENE VII
 Job cpu time:       0 days  0 hours  0 minutes  0.6 seconds.
 File lengths (MBytes):  RWF=      5 Int=      0 D2E=      0 Chk=      1 Scr=      1
 Normal termination of Gaussian 09 at Mon Sep 29 16:42:51 2014.
