 Entering Gaussian System, Link 0=g09
 Input=H2S.r1.00theta87.0.inp
 Output=H2S.r1.00theta87.0.out
 Initial command:
 /usr/local/shared/gaussian/em64t_sse4/09-D01/g09/l1.exe "/scratch/mdd31/Gau-21411.inp" -scrdir="/scratch/mdd31/"
 Entering Link 1 = /usr/local/shared/gaussian/em64t_sse4/09-D01/g09/l1.exe PID=     21413.
  
 Copyright (c) 1988,1990,1992,1993,1995,1998,2003,2009,2013,
            Gaussian, Inc.  All Rights Reserved.
  
 This is part of the Gaussian(R) 09 program.  It is based on
 the Gaussian(R) 03 system (copyright 2003, Gaussian, Inc.),
 the Gaussian(R) 98 system (copyright 1998, Gaussian, Inc.),
 the Gaussian(R) 94 system (copyright 1995, Gaussian, Inc.),
 the Gaussian 92(TM) system (copyright 1992, Gaussian, Inc.),
 the Gaussian 90(TM) system (copyright 1990, Gaussian, Inc.),
 the Gaussian 88(TM) system (copyright 1988, Gaussian, Inc.),
 the Gaussian 86(TM) system (copyright 1986, Carnegie Mellon
 University), and the Gaussian 82(TM) system (copyright 1983,
 Carnegie Mellon University). Gaussian is a federally registered
 trademark of Gaussian, Inc.
  
 This software contains proprietary and confidential information,
 including trade secrets, belonging to Gaussian, Inc.
  
 This software is provided under written license and may be
 used, copied, transmitted, or stored only in accord with that
 written license.
  
 The following legend is applicable only to US Government
 contracts under FAR:
  
                    RESTRICTED RIGHTS LEGEND
  
 Use, reproduction and disclosure by the US Government is
 subject to restrictions as set forth in subparagraphs (a)
 and (c) of the Commercial Computer Software - Restricted
 Rights clause in FAR 52.227-19.
  
 Gaussian, Inc.
 340 Quinnipiac St., Bldg. 40, Wallingford CT 06492
  
  
 ---------------------------------------------------------------
 Warning -- This program may not be used in any manner that
 competes with the business of Gaussian, Inc. or will provide
 assistance to any competitor of Gaussian, Inc.  The licensee
 of this program is prohibited from giving any competitor of
 Gaussian, Inc. access to this program.  By using this program,
 the user acknowledges that Gaussian, Inc. is engaged in the
 business of creating and licensing software in the field of
 computational chemistry and represents and warrants to the
 licensee that it is not a competitor of Gaussian, Inc. and that
 it will not use this program in any manner prohibited above.
 ---------------------------------------------------------------
  

 Cite this work as:
 Gaussian 09, Revision D.01,
 M. J. Frisch, G. W. Trucks, H. B. Schlegel, G. E. Scuseria, 
 M. A. Robb, J. R. Cheeseman, G. Scalmani, V. Barone, B. Mennucci, 
 G. A. Petersson, H. Nakatsuji, M. Caricato, X. Li, H. P. Hratchian, 
 A. F. Izmaylov, J. Bloino, G. Zheng, J. L. Sonnenberg, M. Hada, 
 M. Ehara, K. Toyota, R. Fukuda, J. Hasegawa, M. Ishida, T. Nakajima, 
 Y. Honda, O. Kitao, H. Nakai, T. Vreven, J. A. Montgomery, Jr., 
 J. E. Peralta, F. Ogliaro, M. Bearpark, J. J. Heyd, E. Brothers, 
 K. N. Kudin, V. N. Staroverov, T. Keith, R. Kobayashi, J. Normand, 
 K. Raghavachari, A. Rendell, J. C. Burant, S. S. Iyengar, J. Tomasi, 
 M. Cossi, N. Rega, J. M. Millam, M. Klene, J. E. Knox, J. B. Cross, 
 V. Bakken, C. Adamo, J. Jaramillo, R. Gomperts, R. E. Stratmann, 
 O. Yazyev, A. J. Austin, R. Cammi, C. Pomelli, J. W. Ochterski, 
 R. L. Martin, K. Morokuma, V. G. Zakrzewski, G. A. Voth, 
 P. Salvador, J. J. Dannenberg, S. Dapprich, A. D. Daniels, 
 O. Farkas, J. B. Foresman, J. V. Ortiz, J. Cioslowski, 
 and D. J. Fox, Gaussian, Inc., Wallingford CT, 2013.
 
 ******************************************
 Gaussian 09:  ES64L-G09RevD.01 24-Apr-2013
                30-Sep-2014 
 ******************************************
 -----------------
 #RHF 6-31G(d',p')
 -----------------
 1/38=1/1;
 2/12=2,17=6,18=5,40=1/2;
 3/5=11,6=6,7=101,11=1,16=1,25=1,30=1,116=1/1,2,3;
 4//1;
 5/5=2,38=5/2;
 6/7=2,8=2,9=2,10=2,28=1/1;
 99/5=1,9=1/99;
 ------------------
 H2S.r1.00theta87.0
 ------------------
 Symbolic Z-matrix:
 Charge =  0 Multiplicity = 1
 S
 H                    1     1. 
 H                    1     1.       2     87. 
 
                          Input orientation:                          
 ---------------------------------------------------------------------
 Center     Atomic      Atomic             Coordinates (Angstroms)
 Number     Number       Type             X           Y           Z
 ---------------------------------------------------------------------
      1         16           0        0.000000    0.000000    0.000000
      2          1           0        0.000000    0.000000    1.000000
      3          1           0        0.998630    0.000000    0.052336
 ---------------------------------------------------------------------
                    Distance matrix (angstroms):
                    1          2          3
     1  S    0.000000
     2  H    1.000000   0.000000
     3  H    1.000000   1.376709   0.000000
 Stoichiometry    H2S
 Framework group  C2V[C2(S),SGV(H2)]
 Deg. of freedom     2
 Full point group                 C2V     NOp   4
 Largest Abelian subgroup         C2V     NOp   4
 Largest concise Abelian subgroup C2      NOp   2
                         Standard orientation:                         
 ---------------------------------------------------------------------
 Center     Atomic      Atomic             Coordinates (Angstroms)
 Number     Number       Type             X           Y           Z
 ---------------------------------------------------------------------
      1         16           0        0.000000    0.000000    0.080597
      2          1           0        0.000000    0.688355   -0.644777
      3          1           0        0.000000   -0.688355   -0.644777
 ---------------------------------------------------------------------
 Rotational constants (GHZ):    529.1485982    506.5576977    258.8033854
 Standard basis: 6-31(d',p') (6D, 7F)
 There are    14 symmetry adapted cartesian basis functions of A1  symmetry.
 There are     2 symmetry adapted cartesian basis functions of A2  symmetry.
 There are     5 symmetry adapted cartesian basis functions of B1  symmetry.
 There are     8 symmetry adapted cartesian basis functions of B2  symmetry.
 There are    14 symmetry adapted basis functions of A1  symmetry.
 There are     2 symmetry adapted basis functions of A2  symmetry.
 There are     5 symmetry adapted basis functions of B1  symmetry.
 There are     8 symmetry adapted basis functions of B2  symmetry.
    29 basis functions,    66 primitive gaussians,    29 cartesian basis functions
     9 alpha electrons        9 beta electrons
       nuclear repulsion energy        17.3180490369 Hartrees.
 NAtoms=    3 NActive=    3 NUniq=    2 SFac= 2.25D+00 NAtFMM=   60 NAOKFM=F Big=F
 Integral buffers will be    131072 words long.
 Raffenetti 1 integral format.
 Two-electron integral symmetry is turned on.
 One-electron integrals computed using PRISM.
 NBasis=    29 RedAO= T EigKep=  1.55D-02  NBF=    14     2     5     8
 NBsUse=    29 1.00D-06 EigRej= -1.00D+00 NBFU=    14     2     5     8
 ExpMin= 1.17D-01 ExpMax= 2.19D+04 ExpMxC= 3.30D+03 IAcc=1 IRadAn=         1 AccDes= 0.00D+00
 Harris functional with IExCor=  205 and IRadAn=       1 diagonalized for initial guess.
 HarFok:  IExCor=  205 AccDes= 0.00D+00 IRadAn=         1 IDoV= 1 UseB2=F ITyADJ=14
 ICtDFT=  3500011 ScaDFX=  1.000000  1.000000  1.000000  1.000000
 FoFCou: FMM=F IPFlag=           0 FMFlag=      100000 FMFlg1=           0
         NFxFlg=           0 DoJE=T BraDBF=F KetDBF=T FulRan=T
         wScrn=  0.000000 ICntrl=     500 IOpCl=  0 I1Cent=   200000004 NGrid=           0
         NMat0=    1 NMatS0=      1 NMatT0=    0 NMatD0=    1 NMtDS0=    0 NMtDT0=    0
 Petite list used in FoFCou.
 Initial guess orbital symmetries:
       Occupied  (A1) (A1) (A1) (B2) (B1) (A1) (B2) (A1) (B1)
       Virtual   (B2) (A1) (A1) (B2) (A1) (B1) (A1) (A2) (B1) (B2)
                 (A1) (A1) (B2) (A2) (A1) (B1) (B2) (A1) (B2) (A1)
 The electronic state of the initial guess is 1-A1.
 Keep R1 ints in memory in symmetry-blocked form, NReq=949291.
 Requested convergence on RMS density matrix=1.00D-08 within 128 cycles.
 Requested convergence on MAX density matrix=1.00D-06.
 Requested convergence on             energy=1.00D-06.
 No special actions if energy rises.
 SCF Done:  E(RHF) =  -398.448609623     A.U. after    9 cycles
            NFock=  9  Conv=0.63D-08     -V/T= 1.9959

 **********************************************************************

            Population analysis using the SCF density.

 **********************************************************************

 Orbital symmetries:
       Occupied  (A1) (A1) (B2) (A1) (B1) (A1) (B2) (A1) (B1)
       Virtual   (B2) (A1) (A1) (B2) (A1) (B1) (A1) (B2) (A2) (B1)
                 (A1) (A1) (B2) (A2) (A1) (B1) (B2) (A1) (B2) (A1)
 The electronic state is 1-A1.
 Alpha  occ. eigenvalues --  -91.89539  -8.94091  -6.62435  -6.62385  -6.61525
 Alpha  occ. eigenvalues --   -1.11165  -0.67982  -0.52740  -0.38908
 Alpha virt. eigenvalues --    0.22005   0.31892   0.37255   0.46753   0.52321
 Alpha virt. eigenvalues --    0.53026   0.82498   0.86893   0.92809   0.93308
 Alpha virt. eigenvalues --    1.08199   1.57492   1.69864   1.88420   2.01364
 Alpha virt. eigenvalues --    2.04019   2.04869   3.27992   3.29129   4.36738
          Condensed to atoms (all electrons):
               1          2          3
     1  S   15.408563   0.276196   0.276196
     2  H    0.276196   0.778673  -0.035347
     3  H    0.276196  -0.035347   0.778673
 Mulliken charges:
               1
     1  S    0.039045
     2  H   -0.019522
     3  H   -0.019522
 Sum of Mulliken charges =   0.00000
 Mulliken charges with hydrogens summed into heavy atoms:
               1
     1  S    0.000000
 Electronic spatial extent (au):  <R**2>=             37.3133
 Charge=              0.0000 electrons
 Dipole moment (field-independent basis, Debye):
    X=              0.0000    Y=              0.0000    Z=             -1.3070  Tot=              1.3070
 Quadrupole moment (field-independent basis, Debye-Ang):
   XX=            -15.7708   YY=            -12.1569   ZZ=            -13.2152
   XY=              0.0000   XZ=              0.0000   YZ=              0.0000
 Traceless Quadrupole moment (field-independent basis, Debye-Ang):
   XX=             -2.0565   YY=              1.5574   ZZ=              0.4991
   XY=              0.0000   XZ=              0.0000   YZ=              0.0000
 Octapole moment (field-independent basis, Debye-Ang**2):
  XXX=              0.0000  YYY=              0.0000  ZZZ=             -2.5744  XYY=              0.0000
  XXY=              0.0000  XXZ=             -1.0712  XZZ=              0.0000  YZZ=              0.0000
  YYZ=             -0.6154  XYZ=              0.0000
 Hexadecapole moment (field-independent basis, Debye-Ang**3):
 XXXX=            -21.7253 YYYY=            -16.0066 ZZZZ=            -18.8754 XXXY=              0.0000
 XXXZ=              0.0000 YYYX=              0.0000 YYYZ=              0.0000 ZZZX=              0.0000
 ZZZY=              0.0000 XXYY=             -6.3528 XXZZ=             -6.8619 YYZZ=             -5.6183
 XXYZ=              0.0000 YYXZ=              0.0000 ZZXY=              0.0000
 N-N= 1.731804903690D+01 E-N=-9.848002814310D+02  KE= 4.000823700990D+02
 Symmetry A1   KE= 3.228659732227D+02
 Symmetry A2   KE= 1.517853359908D-34
 Symmetry B1   KE= 3.858564147632D+01
 Symmetry B2   KE= 3.863075539999D+01
 1\1\GINC-CARPATHIA\SP\RHF\6-31(d',p')\H2S1\MDD31\30-Sep-2014\0\\#RHF 6
 -31G(d',p')\\H2S.r1.00theta87.0\\0,1\S\H,1,1.\H,1,1.,2,87.\\Version=ES
 64L-G09RevD.01\State=1-A1\HF=-398.4486096\RMSD=6.253e-09\Dipole=0.3539
 655,0.,0.3730018\Quadrupole=0.785082,-1.528985,0.7439031,0.,-0.3928702
 ,0.\PG=C02V [C2(S1),SGV(H2)]\\@


 TWO ROADS DIVERGED IN A WOOD, AND I--
 I TOOK THE ONE LESS TRAVELED BY,
 AND THAT HAS MADE ALL THE DIFFERENCE.

                       -- ROBERT FROST
 Job cpu time:       0 days  0 hours  0 minutes  0.6 seconds.
 File lengths (MBytes):  RWF=      5 Int=      0 D2E=      0 Chk=      1 Scr=      1
 Normal termination of Gaussian 09 at Tue Sep 30 07:28:26 2014.
